============================== echo of input deck ==============================
echo

start molecule

title "Título"
memory 8000 mb
charge 0

geometry units angstroms print xyz autosym
   O      0.2672100000   -0.2505700000    0.2411800000
   H      0.5536293646    0.4280420604   -0.3587779956
   H      2.0844049454   -0.7237858772    0.2411792129
end

basis
  * library 6-31G*
end

dft
  xc b3lyp
  mult 1
end

task dft optimize
================================================================================

         Total DFT energy =      -76.248246526069
@ Step       Energy      Delta E   Gmax     Grms     Xrms     Xmax   Walltime
@ ---- ---------------- -------- -------- -------- -------- -------- --------
@    0     -76.24824653  0.0D+00  0.07835  0.04858  0.00000  0.00000      0.4
         Total DFT energy =      -76.275134156959
         Total DFT energy =      -76.355571008444
@    1     -76.35557101 -1.1D-01  0.10967  0.08085  0.29634  0.63890      0.9
         Total DFT energy =      -76.381723232820
         Total DFT energy =      -76.278165925462
@    2     -76.27816593  7.7D-02  0.59964  0.35115  0.27832  0.64054      1.3
         Total DFT energy =      -76.347316886864
         Total DFT energy =      -76.376692627024
@    3     -76.37669263 -9.9D-02  0.13676  0.09265  0.07533  0.15975      1.7
         Total DFT energy =      -76.398907039451
         Total DFT energy =      -76.408552314395
@    4     -76.40855231 -3.2D-02  0.01514  0.01067  0.12586  0.22239      2.2
         Total DFT energy =      -76.404858245128
         Total DFT energy =      -76.408793871231
@    5     -76.40879387 -2.4D-04  0.01185  0.00716  0.01239  0.02311      2.6
         Total DFT energy =      -76.408896766219

 Vector   16  Occ=0.000000D+00  E= 1.780428D+00  Symmetry=a"

 Vector   17  Occ=0.000000D+00  E= 2.274917D+00  Symmetry=a'

 Vector   18  Occ=0.000000D+00  E= 2.568996D+00  Symmetry=a'

 Vector   19  Occ=0.000000D+00  E= 3.549395D+00  Symmetry=a'

         Total DFT energy =      -76.408947916658

 Vector    1  Occ=2.000000D+00  E=-1.913798D+01  Symmetry=a'

 Vector    2  Occ=2.000000D+00  E=-9.981248D-01  Symmetry=a'

 Vector    3  Occ=2.000000D+00  E=-5.175962D-01  Symmetry=a'

 Vector    4  Occ=2.000000D+00  E=-3.720546D-01  Symmetry=a'

 Vector    5  Occ=2.000000D+00  E=-2.912090D-01  Symmetry=a"

 Vector    6  Occ=0.000000D+00  E= 6.282327D-02  Symmetry=a'

 Vector    7  Occ=0.000000D+00  E= 1.484261D-01  Symmetry=a'

 Vector    8  Occ=0.000000D+00  E= 7.731653D-01  Symmetry=a'

 Vector    9  Occ=0.000000D+00  E= 8.614335D-01  Symmetry=a'

 Vector   10  Occ=0.000000D+00  E= 8.908008D-01  Symmetry=a"

 Vector   11  Occ=0.000000D+00  E= 8.950868D-01  Symmetry=a'

 Vector   12  Occ=0.000000D+00  E= 1.066066D+00  Symmetry=a'

 Vector   13  Occ=0.000000D+00  E= 1.193182D+00  Symmetry=a'

 Vector   14  Occ=0.000000D+00  E= 1.729231D+00  Symmetry=a'

 Vector   15  Occ=0.000000D+00  E= 1.746128D+00  Symmetry=a"

 Vector   16  Occ=0.000000D+00  E= 1.779811D+00  Symmetry=a"

 Vector   17  Occ=0.000000D+00  E= 2.281495D+00  Symmetry=a'

 Vector   18  Occ=0.000000D+00  E= 2.578631D+00  Symmetry=a'

 Vector   19  Occ=0.000000D+00  E= 3.552482D+00  Symmetry=a'

@    6     -76.40894792 -1.5D-04  0.00239  0.00149  0.00666  0.01382      3.0
         Total DFT energy =      -76.408952075991

 Vector    1  Occ=2.000000D+00  E=-1.913833D+01  Symmetry=a'

 Vector    2  Occ=2.000000D+00  E=-9.979969D-01  Symmetry=a'

 Vector    3  Occ=2.000000D+00  E=-5.166548D-01  Symmetry=a'

 Vector    4  Occ=2.000000D+00  E=-3.726861D-01  Symmetry=a'

 Vector    5  Occ=2.000000D+00  E=-2.912552D-01  Symmetry=a"

 Vector    6  Occ=0.000000D+00  E= 6.250326D-02  Symmetry=a'

 Vector    7  Occ=0.000000D+00  E= 1.479792D-01  Symmetry=a'

 Vector    8  Occ=0.000000D+00  E= 7.714903D-01  Symmetry=a'

 Vector    9  Occ=0.000000D+00  E= 8.613337D-01  Symmetry=a'

 Vector   10  Occ=0.000000D+00  E= 8.907228D-01  Symmetry=a"

 Vector   11  Occ=0.000000D+00  E= 8.952826D-01  Symmetry=a'

 Vector   12  Occ=0.000000D+00  E= 1.065517D+00  Symmetry=a'

 Vector   13  Occ=0.000000D+00  E= 1.194275D+00  Symmetry=a'

 Vector   14  Occ=0.000000D+00  E= 1.728452D+00  Symmetry=a'

 Vector   15  Occ=0.000000D+00  E= 1.746599D+00  Symmetry=a"

 Vector   16  Occ=0.000000D+00  E= 1.779559D+00  Symmetry=a"

 Vector   17  Occ=0.000000D+00  E= 2.280271D+00  Symmetry=a'

 Vector   18  Occ=0.000000D+00  E= 2.576328D+00  Symmetry=a'

 Vector   19  Occ=0.000000D+00  E= 3.551369D+00  Symmetry=a'

         Total DFT energy =    -76.408952075991
@    7     -76.40895208 -4.2D-06  0.00079  0.00063  0.00223  0.00479      3.2
         Total DFT energy =      -76.408954518049

 Vector    1  Occ=2.000000D+00  E=-1.913817D+01  Symmetry=a'

 Vector    2  Occ=2.000000D+00  E=-9.978436D-01  Symmetry=a'

 Vector    3  Occ=2.000000D+00  E=-5.171545D-01  Symmetry=a'

 Vector    4  Occ=2.000000D+00  E=-3.721698D-01  Symmetry=a'

 Vector    5  Occ=2.000000D+00  E=-2.911787D-01  Symmetry=a"

 Vector    6  Occ=0.000000D+00  E= 6.259070D-02  Symmetry=a'

 Vector    7  Occ=0.000000D+00  E= 1.481096D-01  Symmetry=a'

 Vector    8  Occ=0.000000D+00  E= 7.725201D-01  Symmetry=a'

 Vector    9  Occ=0.000000D+00  E= 8.608276D-01  Symmetry=a'

 Vector   10  Occ=0.000000D+00  E= 8.907856D-01  Symmetry=a"

 Vector   11  Occ=0.000000D+00  E= 8.950670D-01  Symmetry=a'

 Vector   12  Occ=0.000000D+00  E= 1.065795D+00  Symmetry=a'

 Vector   13  Occ=0.000000D+00  E= 1.193352D+00  Symmetry=a'

 Vector   14  Occ=0.000000D+00  E= 1.729173D+00  Symmetry=a'

 Vector   15  Occ=0.000000D+00  E= 1.746369D+00  Symmetry=a"

 Vector   16  Occ=0.000000D+00  E= 1.779839D+00  Symmetry=a"

 Vector   17  Occ=0.000000D+00  E= 2.280527D+00  Symmetry=a'

 Vector   18  Occ=0.000000D+00  E= 2.577067D+00  Symmetry=a'

 Vector   19  Occ=0.000000D+00  E= 3.551920D+00  Symmetry=a'

         Total DFT energy =    -76.408954518049
@    8     -76.40895452 -2.4D-06  0.00007  0.00005  0.00147  0.00238      3.4
         Total DFT energy =      -76.408954535240

                       DFT Final Molecular Orbital Analysis
                       ------------------------------------

 Vector    1  Occ=2.000000D+00  E=-1.913816D+01  Symmetry=a'

 Vector    2  Occ=2.000000D+00  E=-9.978725D-01  Symmetry=a'

 Vector    3  Occ=2.000000D+00  E=-5.171239D-01  Symmetry=a'

 Vector    4  Occ=2.000000D+00  E=-3.722141D-01  Symmetry=a'

 Vector    5  Occ=2.000000D+00  E=-2.911830D-01  Symmetry=a"

 Vector    6  Occ=0.000000D+00  E= 6.259913D-02  Symmetry=a'

 Vector    7  Occ=0.000000D+00  E= 1.481184D-01  Symmetry=a'

 Vector    8  Occ=0.000000D+00  E= 7.724526D-01  Symmetry=a'

 Vector    9  Occ=0.000000D+00  E= 8.609275D-01  Symmetry=a'

 Vector   10  Occ=0.000000D+00  E= 8.907847D-01  Symmetry=a"

 Vector   11  Occ=0.000000D+00  E= 8.950948D-01  Symmetry=a'

 Vector   12  Occ=0.000000D+00  E= 1.065786D+00  Symmetry=a'

 Vector   13  Occ=0.000000D+00  E= 1.193445D+00  Symmetry=a'

 Vector   14  Occ=0.000000D+00  E= 1.729102D+00  Symmetry=a'

 Vector   15  Occ=0.000000D+00  E= 1.746383D+00  Symmetry=a"

 Vector   16  Occ=0.000000D+00  E= 1.779811D+00  Symmetry=a"

 Vector   17  Occ=0.000000D+00  E= 2.280567D+00  Symmetry=a'

 Vector   18  Occ=0.000000D+00  E= 2.577093D+00  Symmetry=a'

 Vector   19  Occ=0.000000D+00  E= 3.551902D+00  Symmetry=a'

     Multipole analysis of the density
     ---------------------------------

     L   x y z        total         alpha         beta         nuclear
     -   - - -        -----         -----         ----         -------
     0   0 0 0     -0.000000     -5.000000     -5.000000     10.000000

     1   1 0 0      0.665970      0.376296      0.376296     -0.086622
     1   0 1 0     -0.485883      2.571153      2.571153     -5.628189
     1   0 0 1      0.000000      0.000000      0.000000      0.000000

     2   2 0 0     -4.024951     -3.400651     -3.400651      2.776350
     2   1 1 0      0.232286     -0.406708     -0.406708      1.045701
     2   1 0 1      0.000000      0.000000      0.000000      0.000000
     2   0 2 0     -3.079964     -4.831207     -4.831207      6.582451
     2   0 1 1      0.000000      0.000000      0.000000      0.000000

         Total DFT energy =    -76.408954535240
@    9     -76.40895454 -1.7D-08  0.00001  0.00001  0.00015  0.00028      3.6
@    9     -76.40895454 -1.7D-08  0.00001  0.00001  0.00015  0.00028      3.6

 Output coordinates in angstroms (scale by  1.889725989 to convert to a.u.)

  No.       Tag          Charge          X              Y              Z
 ---- ---------------- ---------- -------------- -------------- --------------
    1 O                    8.0000    -0.10132052    -0.22725179     0.00000000
    2 H                    1.0000     0.83121022     0.03506989     0.00000000
    3 H                    1.0000    -0.06648472    -1.19536492     0.00000000

 Total times  cpu:        8.5s     wall:        3.7s
