============================== echo of input deck ==============================
echo

start molecule

title "Título"
memory 8000 mb
charge 0

geometry units angstroms print xyz autosym
   O      0.2672100000   -0.2505700000    0.2411800000
   H      0.5536293646    0.4280420604   -0.3587779956
   H      2.0844049454   -0.7237858772    0.2411792129
end

basis
  * library 6-31G*
end

dft
  xc b3lyp
  mult 1
end

task dft optimize
================================================================================

         Total DFT energy =      -76.248246526069
@ Step       Energy      Delta E   Gmax     Grms     Xrms     Xmax   Walltime
@ ---- ---------------- -------- -------- -------- -------- -------- --------
@    0     -76.24824653  0.0D+00  0.07835  0.04858  0.00000  0.00000      0.4
         Total DFT energy =      -76.263365893732
         Total DFT energy =      -76.303612768335
@    1     -76.30361277 -5.5D-02  0.10630  0.07018  0.19175  0.43704      0.9
         Total DFT energy =      -76.334018888735
         Total DFT energy =      -76.364315774624
@    2     -76.36431577 -6.1D-02  0.10684  0.07778  0.15466  0.35923      1.3
         Total DFT energy =      -76.395353809322
         Total DFT energy =      -76.342402659994
@    3     -76.34240266  2.2D-02  0.39848  0.23187  0.27434  0.61349      1.9
         Total DFT energy =      -76.383257701088
         Total DFT energy =      -76.388276740346
@    4     -76.38827674 -4.6D-02  0.11896  0.08092  0.07263  0.13521      2.3
         Total DFT energy =      -76.400183589720
         Total DFT energy =      -76.402241369548
@    5     -76.40224137 -1.4D-02  0.03467  0.03038  0.07680  0.12356      2.7
         Total DFT energy =      -76.408307411058
         Total DFT energy =      -76.408722260253
@    6     -76.40872226 -6.5D-03  0.01348  0.00913  0.06779  0.12533      3.1
         Total DFT energy =      -76.408941480368

 Vector   16  Occ=0.000000D+00  E= 1.779025D+00  Symmetry=a"

 Vector   17  Occ=0.000000D+00  E= 2.282876D+00  Symmetry=a'

 Vector   18  Occ=0.000000D+00  E= 2.579801D+00  Symmetry=a'

 Vector   19  Occ=0.000000D+00  E= 3.552181D+00  Symmetry=a'

         Total DFT energy =      -76.408947766812

 Vector    1  Occ=2.000000D+00  E=-1.913836D+01  Symmetry=a'

 Vector    2  Occ=2.000000D+00  E=-9.984518D-01  Symmetry=a'

 Vector    3  Occ=2.000000D+00  E=-5.164605D-01  Symmetry=a'

 Vector    4  Occ=2.000000D+00  E=-3.732119D-01  Symmetry=a'

 Vector    5  Occ=2.000000D+00  E=-2.913765D-01  Symmetry=a"

 Vector    6  Occ=0.000000D+00  E= 6.262296D-02  Symmetry=a'

 Vector    7  Occ=0.000000D+00  E= 1.481207D-01  Symmetry=a'

 Vector    8  Occ=0.000000D+00  E= 7.708657D-01  Symmetry=a'

 Vector    9  Occ=0.000000D+00  E= 8.624773D-01  Symmetry=a'

 Vector   10  Occ=0.000000D+00  E= 8.906610D-01  Symmetry=a"

 Vector   11  Occ=0.000000D+00  E= 8.955943D-01  Symmetry=a'

 Vector   12  Occ=0.000000D+00  E= 1.065433D+00  Symmetry=a'

 Vector   13  Occ=0.000000D+00  E= 1.195249D+00  Symmetry=a'

 Vector   14  Occ=0.000000D+00  E= 1.727621D+00  Symmetry=a'

 Vector   15  Occ=0.000000D+00  E= 1.746655D+00  Symmetry=a"

 Vector   16  Occ=0.000000D+00  E= 1.779187D+00  Symmetry=a"

 Vector   17  Occ=0.000000D+00  E= 2.280934D+00  Symmetry=a'

 Vector   18  Occ=0.000000D+00  E= 2.576864D+00  Symmetry=a'

 Vector   19  Occ=0.000000D+00  E= 3.551224D+00  Symmetry=a'

@    7     -76.40894777 -2.3D-04  0.00090  0.00072  0.00734  0.01472      3.5
         Total DFT energy =      -76.408949400487

 Vector    1  Occ=2.000000D+00  E=-1.913814D+01  Symmetry=a'

 Vector    2  Occ=2.000000D+00  E=-9.975299D-01  Symmetry=a'

 Vector    3  Occ=2.000000D+00  E=-5.173081D-01  Symmetry=a'

 Vector    4  Occ=2.000000D+00  E=-3.717883D-01  Symmetry=a'

 Vector    5  Occ=2.000000D+00  E=-2.910927D-01  Symmetry=a"

 Vector    6  Occ=0.000000D+00  E= 6.250783D-02  Symmetry=a'

 Vector    7  Occ=0.000000D+00  E= 1.480213D-01  Symmetry=a'

 Vector    8  Occ=0.000000D+00  E= 7.729895D-01  Symmetry=a'

 Vector    9  Occ=0.000000D+00  E= 8.599980D-01  Symmetry=a'

 Vector   10  Occ=0.000000D+00  E= 8.908307D-01  Symmetry=a"

 Vector   11  Occ=0.000000D+00  E= 8.948742D-01  Symmetry=a'

 Vector   12  Occ=0.000000D+00  E= 1.065872D+00  Symmetry=a'

 Vector   13  Occ=0.000000D+00  E= 1.192651D+00  Symmetry=a'

 Vector   14  Occ=0.000000D+00  E= 1.729775D+00  Symmetry=a'

 Vector   15  Occ=0.000000D+00  E= 1.746320D+00  Symmetry=a"

 Vector   16  Occ=0.000000D+00  E= 1.780105D+00  Symmetry=a"

 Vector   17  Occ=0.000000D+00  E= 2.280107D+00  Symmetry=a'

 Vector   18  Occ=0.000000D+00  E= 2.576714D+00  Symmetry=a'

 Vector   19  Occ=0.000000D+00  E= 3.552041D+00  Symmetry=a'

         Total DFT energy =    -76.408949400487
@    8     -76.40894940 -1.6D-06  0.00187  0.00121  0.00428  0.00814      3.7
         Total DFT energy =      -76.408954492817

 Vector    1  Occ=2.000000D+00  E=-1.913816D+01  Symmetry=a'

 Vector    2  Occ=2.000000D+00  E=-9.978606D-01  Symmetry=a'

 Vector    3  Occ=2.000000D+00  E=-5.171732D-01  Symmetry=a'

 Vector    4  Occ=2.000000D+00  E=-3.721693D-01  Symmetry=a'

 Vector    5  Occ=2.000000D+00  E=-2.911812D-01  Symmetry=a"

 Vector    6  Occ=0.000000D+00  E= 6.260299D-02  Symmetry=a'

 Vector    7  Occ=0.000000D+00  E= 1.481257D-01  Symmetry=a'

 Vector    8  Occ=0.000000D+00  E= 7.725451D-01  Symmetry=a'

 Vector    9  Occ=0.000000D+00  E= 8.608662D-01  Symmetry=a'

 Vector   10  Occ=0.000000D+00  E= 8.907859D-01  Symmetry=a"

 Vector   11  Occ=0.000000D+00  E= 8.950706D-01  Symmetry=a'

 Vector   12  Occ=0.000000D+00  E= 1.065807D+00  Symmetry=a'

 Vector   13  Occ=0.000000D+00  E= 1.193353D+00  Symmetry=a'

 Vector   14  Occ=0.000000D+00  E= 1.729168D+00  Symmetry=a'

 Vector   15  Occ=0.000000D+00  E= 1.746358D+00  Symmetry=a"

 Vector   16  Occ=0.000000D+00  E= 1.779834D+00  Symmetry=a"

 Vector   17  Occ=0.000000D+00  E= 2.280579D+00  Symmetry=a'

 Vector   18  Occ=0.000000D+00  E= 2.577144D+00  Symmetry=a'

 Vector   19  Occ=0.000000D+00  E= 3.551945D+00  Symmetry=a'

         Total DFT energy =    -76.408954492817
@    9     -76.40895449 -5.1D-06  0.00012  0.00010  0.00149  0.00258      4.0
         Total DFT energy =      -76.408954534606

                       DFT Final Molecular Orbital Analysis
                       ------------------------------------

 Vector    1  Occ=2.000000D+00  E=-1.913819D+01  Symmetry=a'

 Vector    2  Occ=2.000000D+00  E=-9.978861D-01  Symmetry=a'

 Vector    3  Occ=2.000000D+00  E=-5.171279D-01  Symmetry=a'

 Vector    4  Occ=2.000000D+00  E=-3.722324D-01  Symmetry=a'

 Vector    5  Occ=2.000000D+00  E=-2.911976D-01  Symmetry=a"

 Vector    6  Occ=0.000000D+00  E= 6.259429D-02  Symmetry=a'

 Vector    7  Occ=0.000000D+00  E= 1.481120D-01  Symmetry=a'

 Vector    8  Occ=0.000000D+00  E= 7.724368D-01  Symmetry=a'

 Vector    9  Occ=0.000000D+00  E= 8.609226D-01  Symmetry=a'

 Vector   10  Occ=0.000000D+00  E= 8.907726D-01  Symmetry=a"

 Vector   11  Occ=0.000000D+00  E= 8.950891D-01  Symmetry=a'

 Vector   12  Occ=0.000000D+00  E= 1.065772D+00  Symmetry=a'

 Vector   13  Occ=0.000000D+00  E= 1.193449D+00  Symmetry=a'

 Vector   14  Occ=0.000000D+00  E= 1.729085D+00  Symmetry=a'

 Vector   15  Occ=0.000000D+00  E= 1.746375D+00  Symmetry=a"

 Vector   16  Occ=0.000000D+00  E= 1.779798D+00  Symmetry=a"

 Vector   17  Occ=0.000000D+00  E= 2.280553D+00  Symmetry=a'

 Vector   18  Occ=0.000000D+00  E= 2.577073D+00  Symmetry=a'

 Vector   19  Occ=0.000000D+00  E= 3.551882D+00  Symmetry=a'

     Multipole analysis of the density
     ---------------------------------

     L   x y z        total         alpha         beta         nuclear
     -   - - -        -----         -----         ----         -------
     0   0 0 0     -0.000000     -5.000000     -5.000000     10.000000

     1   1 0 0      0.674690      0.408565      0.408565     -0.142439
     1   0 1 0     -0.473791      2.616034      2.616034     -5.705858
     1   0 0 1      0.000000      0.000000      0.000000      0.000000

     2   2 0 0     -4.054193     -3.398057     -3.398057      2.741921
     2   1 1 0      0.217253     -0.424334     -0.424334      1.065921
     2   1 0 1      0.000000      0.000000      0.000000      0.000000
     2   0 2 0     -3.064495     -4.885354     -4.885354      6.706212
     2   0 1 1      0.000000      0.000000      0.000000      0.000000

         Total DFT energy =    -76.408954534606
@   10     -76.40895453 -4.2D-08  0.00001  0.00001  0.00017  0.00029      4.2
@   10     -76.40895453 -4.2D-08  0.00001  0.00001  0.00017  0.00029      4.2

 Output coordinates in angstroms (scale by  1.889725989 to convert to a.u.)

  No.       Tag          Charge          X              Y              Z
 ---- ---------------- ---------- -------------- -------------- --------------
    1 O                    8.0000    -0.10554007    -0.23312338     0.00000000
    2 H                    1.0000     0.82211859     0.04601061     0.00000000
    3 H                    1.0000    -0.05317354    -1.20043404     0.00000000

 Total times  cpu:        9.7s     wall:        4.2s
