============================== echo of input deck ==============================
echo

start molecule

title "Título"
memory 8000 mb
charge 0

geometry units angstroms print xyz autosym
   O      0.2672100000   -0.2505700000    0.2411800000
   H      0.5536293646    0.4280420604   -0.3587779956
   H      2.0844049454   -0.7237858772    0.2411792129
end

basis
  * library 6-31G*
end

dft
  xc b3lyp
  mult 1
end

task dft optimize      # Optimización geométrica
task dft energy        # Energía de un solo punto
task dft freq		# Frecuencias vibracionales

================================================================================

         Total DFT energy =      -76.248246526069
@ Step       Energy      Delta E   Gmax     Grms     Xrms     Xmax   Walltime
@ ---- ---------------- -------- -------- -------- -------- -------- --------
@    0     -76.24824653  0.0D+00  0.07835  0.04858  0.00000  0.00000      0.4
         Total DFT energy =      -76.259547248214
         Total DFT energy =      -76.266270325618
@    1     -76.26627033 -1.8D-02  0.09169  0.06391  0.16187  0.29903      0.8
         Total DFT energy =      -76.292693405919
         Total DFT energy =      -76.321373044615
@    2     -76.32137304 -5.5D-02  0.11139  0.08082  0.16698  0.38567      1.3
         Total DFT energy =      -76.354818048767
         Total DFT energy =      -76.342029821919
@    3     -76.34202982 -2.1D-02  0.24009  0.14901  0.29827  0.52162      1.7
         Total DFT energy =      -76.373825556111
         Total DFT energy =      -76.373347217272
@    4     -76.37334722 -3.1D-02  0.06395  0.04910  0.07516  0.13601      2.1
         Total DFT energy =      -76.385001607314
         Total DFT energy =      -76.389850538277
@    5     -76.38985054 -1.7D-02  0.08539  0.05265  0.14095  0.26886      2.5
         Total DFT energy =      -76.398004842632
         Total DFT energy =    -76.398004842632
@    6     -76.39800484 -8.2D-03  0.03151  0.02571  0.08555  0.17835      2.8
         Total DFT energy =      -76.400647544668
         Total DFT energy =    -76.400647544668
@    7     -76.40064754 -2.6D-03  0.03089  0.01959  0.02531  0.05430      3.0
         Total DFT energy =      -76.403163977130
         Total DFT energy =      -76.404760226872
@    8     -76.40476023 -4.1D-03  0.03158  0.02057  0.05314  0.09877      3.4
         Total DFT energy =      -76.407380249808
         Total DFT energy =      -76.408933470598

 Vector   16  Occ=0.000000D+00  E= 1.780728D+00  Symmetry=a"

 Vector   17  Occ=0.000000D+00  E= 2.278108D+00  Symmetry=a'

 Vector   18  Occ=0.000000D+00  E= 2.574107D+00  Symmetry=a'

 Vector   19  Occ=0.000000D+00  E= 3.551670D+00  Symmetry=a'

@    9     -76.40893347 -4.2D-03  0.00375  0.00229  0.05938  0.10120      3.8
         Total DFT energy =      -76.408954297770

 Vector    1  Occ=2.000000D+00  E=-1.913809D+01  Symmetry=a'

 Vector    2  Occ=2.000000D+00  E=-9.978803D-01  Symmetry=a'

 Vector    3  Occ=2.000000D+00  E=-5.173418D-01  Symmetry=a'

 Vector    4  Occ=2.000000D+00  E=-3.720539D-01  Symmetry=a'

 Vector    5  Occ=2.000000D+00  E=-2.911724D-01  Symmetry=a"

 Vector    6  Occ=0.000000D+00  E= 6.265976D-02  Symmetry=a'

 Vector    7  Occ=0.000000D+00  E= 1.482042D-01  Symmetry=a'

 Vector    8  Occ=0.000000D+00  E= 7.728509D-01  Symmetry=a'

 Vector    9  Occ=0.000000D+00  E= 8.608711D-01  Symmetry=a'

 Vector   10  Occ=0.000000D+00  E= 8.907999D-01  Symmetry=a"

 Vector   11  Occ=0.000000D+00  E= 8.950347D-01  Symmetry=a'

 Vector   12  Occ=0.000000D+00  E= 1.065904D+00  Symmetry=a'

 Vector   13  Occ=0.000000D+00  E= 1.193153D+00  Symmetry=a'

 Vector   14  Occ=0.000000D+00  E= 1.729312D+00  Symmetry=a'

 Vector   15  Occ=0.000000D+00  E= 1.746274D+00  Symmetry=a"

 Vector   16  Occ=0.000000D+00  E= 1.779881D+00  Symmetry=a"

 Vector   17  Occ=0.000000D+00  E= 2.280799D+00  Symmetry=a'

 Vector   18  Occ=0.000000D+00  E= 2.577544D+00  Symmetry=a'

 Vector   19  Occ=0.000000D+00  E= 3.552143D+00  Symmetry=a'

         Total DFT energy =    -76.408954297770
@   10     -76.40895430 -2.1D-05  0.00021  0.00015  0.00371  0.00681      4.0
         Total DFT energy =      -76.408954526039

 Vector    1  Occ=2.000000D+00  E=-1.913817D+01  Symmetry=a'

 Vector    2  Occ=2.000000D+00  E=-9.978740D-01  Symmetry=a'

 Vector    3  Occ=2.000000D+00  E=-5.171264D-01  Symmetry=a'

 Vector    4  Occ=2.000000D+00  E=-3.722177D-01  Symmetry=a'

 Vector    5  Occ=2.000000D+00  E=-2.911881D-01  Symmetry=a"

 Vector    6  Occ=0.000000D+00  E= 6.259534D-02  Symmetry=a'

 Vector    7  Occ=0.000000D+00  E= 1.481137D-01  Symmetry=a'

 Vector    8  Occ=0.000000D+00  E= 7.724495D-01  Symmetry=a'

 Vector    9  Occ=0.000000D+00  E= 8.609138D-01  Symmetry=a'

 Vector   10  Occ=0.000000D+00  E= 8.907802D-01  Symmetry=a"

 Vector   11  Occ=0.000000D+00  E= 8.950899D-01  Symmetry=a'

 Vector   12  Occ=0.000000D+00  E= 1.065780D+00  Symmetry=a'

 Vector   13  Occ=0.000000D+00  E= 1.193439D+00  Symmetry=a'

 Vector   14  Occ=0.000000D+00  E= 1.729101D+00  Symmetry=a'

 Vector   15  Occ=0.000000D+00  E= 1.746379D+00  Symmetry=a"

 Vector   16  Occ=0.000000D+00  E= 1.779808D+00  Symmetry=a"

 Vector   17  Occ=0.000000D+00  E= 2.280554D+00  Symmetry=a'

 Vector   18  Occ=0.000000D+00  E= 2.577076D+00  Symmetry=a'

 Vector   19  Occ=0.000000D+00  E= 3.551893D+00  Symmetry=a'

         Total DFT energy =    -76.408954526039
@   11     -76.40895453 -2.3D-07  0.00000  0.00000  0.00044  0.00072      4.2
@   11     -76.40895453 -2.3D-07  0.00000  0.00000  0.00044  0.00072      4.2

 Output coordinates in angstroms (scale by  1.889725989 to convert to a.u.)

  No.       Tag          Charge          X              Y              Z
 ---- ---------------- ---------- -------------- -------------- --------------
    1 O                    8.0000    -0.09711111    -0.22158749     0.00000000
    2 H                    1.0000     0.83992681     0.02420786     0.00000000
    3 H                    1.0000    -0.07941072    -1.19016719     0.00000000

         Total DFT energy =      -76.408954535726

 Vector    1  Occ=2.000000D+00  E=-1.913817D+01  Symmetry=a'

 Vector    2  Occ=2.000000D+00  E=-9.978749D-01  Symmetry=a'

 Vector    3  Occ=2.000000D+00  E=-5.171269D-01  Symmetry=a'

 Vector    4  Occ=2.000000D+00  E=-3.722174D-01  Symmetry=a'

 Vector    5  Occ=2.000000D+00  E=-2.911884D-01  Symmetry=a"

 Vector    6  Occ=0.000000D+00  E= 6.259477D-02  Symmetry=a'

 Vector    7  Occ=0.000000D+00  E= 1.481133D-01  Symmetry=a'

 Vector    8  Occ=0.000000D+00  E= 7.724491D-01  Symmetry=a'

 Vector    9  Occ=0.000000D+00  E= 8.609131D-01  Symmetry=a'

 Vector   10  Occ=0.000000D+00  E= 8.907799D-01  Symmetry=a"

 Vector   11  Occ=0.000000D+00  E= 8.950902D-01  Symmetry=a'

 Vector   12  Occ=0.000000D+00  E= 1.065780D+00  Symmetry=a'

 Vector   13  Occ=0.000000D+00  E= 1.193438D+00  Symmetry=a'

 Vector   14  Occ=0.000000D+00  E= 1.729101D+00  Symmetry=a'

 Vector   15  Occ=0.000000D+00  E= 1.746379D+00  Symmetry=a"

 Vector   16  Occ=0.000000D+00  E= 1.779808D+00  Symmetry=a"

 Vector   17  Occ=0.000000D+00  E= 2.280554D+00  Symmetry=a'

 Vector   18  Occ=0.000000D+00  E= 2.577076D+00  Symmetry=a'

 Vector   19  Occ=0.000000D+00  E= 3.551893D+00  Symmetry=a'

         Total DFT energy =      -76.408953941974

                       DFT Final Molecular Orbital Analysis
                       ------------------------------------

 Vector    1  Occ=2.000000D+00  E=-1.913817D+01

 Vector    2  Occ=2.000000D+00  E=-9.978748D-01

 Vector    3  Occ=2.000000D+00  E=-5.171269D-01

 Vector    4  Occ=2.000000D+00  E=-3.722174D-01

 Vector    5  Occ=2.000000D+00  E=-2.911886D-01

 Vector    6  Occ=0.000000D+00  E= 6.259458D-02

 Vector    7  Occ=0.000000D+00  E= 1.481131D-01

 Vector    8  Occ=0.000000D+00  E= 7.724490D-01

 Vector    9  Occ=0.000000D+00  E= 8.609131D-01

 Vector   10  Occ=0.000000D+00  E= 8.907798D-01

 Vector   11  Occ=0.000000D+00  E= 8.950906D-01

 Vector   12  Occ=0.000000D+00  E= 1.065780D+00

 Vector   13  Occ=0.000000D+00  E= 1.193438D+00

 Vector   14  Occ=0.000000D+00  E= 1.729101D+00

 Vector   15  Occ=0.000000D+00  E= 1.746379D+00

 Vector   16  Occ=0.000000D+00  E= 1.779808D+00

 Vector   17  Occ=0.000000D+00  E= 2.280554D+00

 Vector   18  Occ=0.000000D+00  E= 2.577076D+00

 Vector   19  Occ=0.000000D+00  E= 3.551894D+00

     Multipole analysis of the density
     ---------------------------------

     L   x y z        total         alpha         beta         nuclear
     -   - - -        -----         -----         ----         -------
     0   0 0 0     -0.000000     -5.000000     -5.000000     10.000000

     1   1 0 0      0.657277      0.344109      0.344109     -0.030940
     1   0 1 0     -0.497590      2.527835      2.527835     -5.553261
     1   0 0 1      0.000000      0.000000      0.000000      0.000000

     2   2 0 0     -3.995982     -3.403611     -3.403611      2.811241
     2   1 1 0      0.245923     -0.389475     -0.389475      1.024873
     2   1 0 1      0.000000      0.000000      0.000000      0.000000
     2   0 2 0     -3.095643     -4.779442     -4.779442      6.463241
     2   0 1 1     -0.000000     -0.000000     -0.000000      0.000000

 Zero-Point correction to Energy  =   13.273 kcal/mol  (  0.021152 au)
 Thermal correction to Energy     =   15.051 kcal/mol  (  0.023985 au)
 Thermal correction to Enthalpy   =   15.643 kcal/mol  (  0.024929 au)
 Total Entropy                    =   46.494 cal/mol-K
   - Translational                =   34.593 cal/mol-K (mol. weight =  18.0106)
   - Rotational                   =   11.896 cal/mol-K (symmetry #  =        1)
   - Vibrational                  =    0.005 cal/mol-K
   - Translational                  =    2.979 cal/mol-K
   - Rotational                     =    2.979 cal/mol-K
   - Vibrational                    =    0.035 cal/mol-K
 P.Frequency       -0.00       -0.00        0.00        0.00        0.00        0.00
 P.Frequency     1713.03     3727.09     3849.04

 Normal Eigenvalue ||           Projected Infra Red Intensities
  Mode   [cm**-1]  || [atomic units] [(debye/angs)**2] [(KM/mol)] [arbitrary]
 ------ ---------- || -------------- ----------------- ---------- -----------
    1       -0.000 ||    0.093506           2.157        91.154      16.797
    2       -0.000 ||    0.003138           0.072         3.059       0.564
    3        0.000 ||    0.033190           0.766        32.355       5.962
    4        0.000 ||    0.131688           3.038       128.376      23.655
    5        0.000 ||    0.131687           3.038       128.375      23.655
    6        0.000 ||    0.008457           0.195         8.244       1.519
    7     1713.027 ||    0.077737           1.793        75.782      13.964
    8     3727.089 ||    0.001735           0.040         1.692       0.312
    9     3849.038 ||    0.019883           0.459        19.383       3.572
 ----------------------------------------------------------------------------

 Total times  cpu:       24.5s     wall:        8.0s
