============================== echo of input deck ==============================
echo

start molecule

title "Título"
memory 8000 mb
charge 0

geometry units angstroms print xyz autosym
   O      0.2672100000   -0.2505700000    0.2411800000
   H      0.5536293646    0.4280420604   -0.3587779956
   H      2.0844049454   -0.7237858772    0.2411792129
end

basis
  * library 6-31G*
end

dft
  xc b3lyp
  mult 1
end

task dft optimize
task dft energy
================================================================================

         Total DFT energy =      -76.248246526069
@ Step       Energy      Delta E   Gmax     Grms     Xrms     Xmax   Walltime
@ ---- ---------------- -------- -------- -------- -------- -------- --------
@    0     -76.24824653  0.0D+00  0.07835  0.04858  0.00000  0.00000      0.4
         Total DFT energy =      -76.263287147806
         Total DFT energy =      -76.303474519565
@    1     -76.30347452 -5.5D-02  0.10617  0.07003  0.18971  0.43244      0.8
         Total DFT energy =      -76.333835980066
         Total DFT energy =      -76.364092226390
@    2     -76.36409223 -6.1D-02  0.10689  0.07775  0.15517  0.36049      1.3
         Total DFT energy =      -76.395093690900
         Total DFT energy =      -76.340538590942
@    3     -76.34053859  2.4D-02  0.40533  0.23579  0.27612  0.61818      1.7
         Total DFT energy =      -76.382006394866
         Total DFT energy =      -76.387162400664
@    4     -76.38716240 -4.7D-02  0.12203  0.08317  0.07297  0.13523      2.1
         Total DFT energy =      -76.400012111479
         Total DFT energy =      -76.401841017934
@    5     -76.40184102 -1.5D-02  0.03469  0.03082  0.07779  0.12429      2.5
         Total DFT energy =      -76.408185887911
         Total DFT energy =      -76.408714363650
@    6     -76.40871436 -6.9D-03  0.01334  0.00928  0.07031  0.12884      2.9
         Total DFT energy =      -76.408942139899
         Total DFT energy =      -76.408949458879

 Vector   16  Occ=0.000000D+00  E= 1.779274D+00  Symmetry=a"

 Vector   17  Occ=0.000000D+00  E= 2.280708D+00  Symmetry=a'

 Vector   18  Occ=0.000000D+00  E= 2.576624D+00  Symmetry=a'

 Vector   19  Occ=0.000000D+00  E= 3.551214D+00  Symmetry=a'

@    7     -76.40894946 -2.4D-04  0.00071  0.00052  0.00771  0.01536      3.3
         Total DFT energy =      -76.408951984031

 Vector    1  Occ=2.000000D+00  E=-1.913813D+01  Symmetry=a'

 Vector    2  Occ=2.000000D+00  E=-9.976792D-01  Symmetry=a'

 Vector    3  Occ=2.000000D+00  E=-5.172971D-01  Symmetry=a'

 Vector    4  Occ=2.000000D+00  E=-3.719222D-01  Symmetry=a'

 Vector    5  Occ=2.000000D+00  E=-2.911296D-01  Symmetry=a"

 Vector    6  Occ=0.000000D+00  E= 6.256414D-02  Symmetry=a'

 Vector    7  Occ=0.000000D+00  E= 1.480870D-01  Symmetry=a'

 Vector    8  Occ=0.000000D+00  E= 7.728809D-01  Symmetry=a'

 Vector    9  Occ=0.000000D+00  E= 8.603740D-01  Symmetry=a'

 Vector   10  Occ=0.000000D+00  E= 8.908143D-01  Symmetry=a"

 Vector   11  Occ=0.000000D+00  E= 8.949468D-01  Symmetry=a'

 Vector   12  Occ=0.000000D+00  E= 1.065869D+00  Symmetry=a'

 Vector   13  Occ=0.000000D+00  E= 1.192899D+00  Symmetry=a'

 Vector   14  Occ=0.000000D+00  E= 1.729551D+00  Symmetry=a'

 Vector   15  Occ=0.000000D+00  E= 1.746312D+00  Symmetry=a"

 Vector   16  Occ=0.000000D+00  E= 1.780000D+00  Symmetry=a"

 Vector   17  Occ=0.000000D+00  E= 2.280369D+00  Symmetry=a'

 Vector   18  Occ=0.000000D+00  E= 2.577008D+00  Symmetry=a'

 Vector   19  Occ=0.000000D+00  E= 3.552053D+00  Symmetry=a'

         Total DFT energy =    -76.408951984031
@    8     -76.40895198 -2.5D-06  0.00125  0.00086  0.00342  0.00644      3.5
         Total DFT energy =      -76.408954320512

 Vector    1  Occ=2.000000D+00  E=-1.913815D+01  Symmetry=a'

 Vector    2  Occ=2.000000D+00  E=-9.978533D-01  Symmetry=a'

 Vector    3  Occ=2.000000D+00  E=-5.172015D-01  Symmetry=a'

 Vector    4  Occ=2.000000D+00  E=-3.721411D-01  Symmetry=a'

 Vector    5  Occ=2.000000D+00  E=-2.911770D-01  Symmetry=a"

 Vector    6  Occ=0.000000D+00  E= 6.260826D-02  Symmetry=a'

 Vector    7  Occ=0.000000D+00  E= 1.481339D-01  Symmetry=a'

 Vector    8  Occ=0.000000D+00  E= 7.726023D-01  Symmetry=a'

 Vector    9  Occ=0.000000D+00  E= 8.608412D-01  Symmetry=a'

 Vector   10  Occ=0.000000D+00  E= 8.907894D-01  Symmetry=a"

 Vector   11  Occ=0.000000D+00  E= 8.950594D-01  Symmetry=a'

 Vector   12  Occ=0.000000D+00  E= 1.065823D+00  Symmetry=a'

 Vector   13  Occ=0.000000D+00  E= 1.193303D+00  Symmetry=a'

 Vector   14  Occ=0.000000D+00  E= 1.729207D+00  Symmetry=a'

 Vector   15  Occ=0.000000D+00  E= 1.746345D+00  Symmetry=a"

 Vector   16  Occ=0.000000D+00  E= 1.779849D+00  Symmetry=a"

 Vector   17  Occ=0.000000D+00  E= 2.280596D+00  Symmetry=a'

 Vector   18  Occ=0.000000D+00  E= 2.577189D+00  Symmetry=a'

 Vector   19  Occ=0.000000D+00  E= 3.551976D+00  Symmetry=a'

         Total DFT energy =    -76.408954320512
@    9     -76.40895432 -2.3D-06  0.00031  0.00025  0.00103  0.00183      3.7
         Total DFT energy =      -76.408954529977

 Vector    1  Occ=2.000000D+00  E=-1.913822D+01  Symmetry=a'

 Vector    2  Occ=2.000000D+00  E=-9.978980D-01  Symmetry=a'

 Vector    3  Occ=2.000000D+00  E=-5.171216D-01  Symmetry=a'

 Vector    4  Occ=2.000000D+00  E=-3.722524D-01  Symmetry=a'

 Vector    5  Occ=2.000000D+00  E=-2.912065D-01  Symmetry=a"

 Vector    6  Occ=0.000000D+00  E= 6.259263D-02  Symmetry=a'

 Vector    7  Occ=0.000000D+00  E= 1.481090D-01  Symmetry=a'

 Vector    8  Occ=0.000000D+00  E= 7.724116D-01  Symmetry=a'

 Vector    9  Occ=0.000000D+00  E= 8.609382D-01  Symmetry=a'

 Vector   10  Occ=0.000000D+00  E= 8.907656D-01  Symmetry=a"

 Vector   11  Occ=0.000000D+00  E= 8.950912D-01  Symmetry=a'

 Vector   12  Occ=0.000000D+00  E= 1.065761D+00  Symmetry=a'

 Vector   13  Occ=0.000000D+00  E= 1.193471D+00  Symmetry=a'

 Vector   14  Occ=0.000000D+00  E= 1.729060D+00  Symmetry=a'

 Vector   15  Occ=0.000000D+00  E= 1.746375D+00  Symmetry=a"

 Vector   16  Occ=0.000000D+00  E= 1.779785D+00  Symmetry=a"

 Vector   17  Occ=0.000000D+00  E= 2.280550D+00  Symmetry=a'

 Vector   18  Occ=0.000000D+00  E= 2.577060D+00  Symmetry=a'

 Vector   19  Occ=0.000000D+00  E= 3.551864D+00  Symmetry=a'

         Total DFT energy =    -76.408954529977
@   10     -76.40895453 -2.1D-07  0.00002  0.00001  0.00033  0.00059      3.9
@   10     -76.40895453 -2.1D-07  0.00002  0.00001  0.00033  0.00059      3.9

 Output coordinates in angstroms (scale by  1.889725989 to convert to a.u.)

  No.       Tag          Charge          X              Y              Z
 ---- ---------------- ---------- -------------- -------------- --------------
    1 O                    8.0000    -0.10526405    -0.23268142     0.00000000
    2 H                    1.0000     0.82277866     0.04518544     0.00000000
    3 H                    1.0000    -0.05410962    -1.20005084     0.00000000

         Total DFT energy =      -76.408954529582

                       DFT Final Molecular Orbital Analysis
                       ------------------------------------

 Vector    1  Occ=2.000000D+00  E=-1.913818D+01  Symmetry=a'

 Vector    2  Occ=2.000000D+00  E=-9.978869D-01  Symmetry=a'

 Vector    3  Occ=2.000000D+00  E=-5.171128D-01  Symmetry=a'

 Vector    4  Occ=2.000000D+00  E=-3.722386D-01  Symmetry=a'

 Vector    5  Occ=2.000000D+00  E=-2.911929D-01  Symmetry=a"

 Vector    6  Occ=0.000000D+00  E= 6.259458D-02  Symmetry=a'

 Vector    7  Occ=0.000000D+00  E= 1.481124D-01  Symmetry=a'

 Vector    8  Occ=0.000000D+00  E= 7.724144D-01  Symmetry=a'

 Vector    9  Occ=0.000000D+00  E= 8.609446D-01  Symmetry=a'

 Vector   10  Occ=0.000000D+00  E= 8.907769D-01  Symmetry=a"

 Vector   11  Occ=0.000000D+00  E= 8.950997D-01  Symmetry=a'

 Vector   12  Occ=0.000000D+00  E= 1.065772D+00  Symmetry=a'

 Vector   13  Occ=0.000000D+00  E= 1.193475D+00  Symmetry=a'

 Vector   14  Occ=0.000000D+00  E= 1.729070D+00  Symmetry=a'

 Vector   15  Occ=0.000000D+00  E= 1.746385D+00  Symmetry=a"

 Vector   16  Occ=0.000000D+00  E= 1.779795D+00  Symmetry=a"

 Vector   17  Occ=0.000000D+00  E= 2.280558D+00  Symmetry=a'

 Vector   18  Occ=0.000000D+00  E= 2.577068D+00  Symmetry=a'

 Vector   19  Occ=0.000000D+00  E= 3.551878D+00  Symmetry=a'

     Multipole analysis of the density
     ---------------------------------

     L   x y z        total         alpha         beta         nuclear
     -   - - -        -----         -----         ----         -------
     0   0 0 0     -0.000000     -5.000000     -5.000000     10.000000

     1   1 0 0      0.674091      0.406440      0.406440     -0.138788
     1   0 1 0     -0.474668      2.612672      2.612672     -5.700012
     1   0 0 1      0.000000      0.000000      0.000000      0.000000

     2   2 0 0     -4.052153     -3.398324     -3.398324      2.744494
     2   1 1 0      0.218221     -0.423078     -0.423078      1.064377
     2   1 0 1      0.000000      0.000000      0.000000      0.000000
     2   0 2 0     -3.065782     -4.881279     -4.881279      6.696777
     2   0 1 1      0.000000      0.000000      0.000000      0.000000

 Total times  cpu:        9.9s     wall:        4.0s
